# vtk DataFile Version 3.0
vtk output
ASCII
DATASET POLYDATA
POINTS 21510 float
1.46746 -2.0875 -45.2185 1.46459 -2.47071 -45.142 0.613868 -2.07711 -45.1191 
2.33563 -2.10756 -45.2505 2.33449 -2.67319 -45.1462 3.20423 -2.13698 -45.2128 
3.2057 -2.65617 -45.1172 4.07462 -2.17758 -45.0938 4.07604 -2.40465 -45.0475 
4.43883 -2.19923 -45.0018 -0.246896 -1.1764 -45.0526 -0.249126 -1.26187 -45.0407 
-0.314557 -1.1769 -45.0314 0.615722 -1.17827 -45.2102 0.597153 -2.06646 -45.1184 
1.47852 -1.19102 -45.2823 2.33922 -1.21288 -45.2967 3.20074 -1.24443 -45.2584 
4.0648 -1.28733 -45.1566 4.93209 -1.78628 -44.9215 4.92539 -1.34441 -44.9696 
5.26882 -1.37287 -44.8526 -0.2189 -0.293639 -45.0805 -0.754183 -0.298543 -44.9257 
0.636659 -0.297573 -45.2129 1.49157 -0.312011 -45.2644 2.34431 -0.335491 -45.2643 
3.19783 -0.368342 -45.2218 4.05414 -0.412211 -45.13 4.9078 -0.469726 -44.9662 
5.64195 -0.533544 -44.7353 -0.194713 0.571777 -45.0296 -0.964816 0.565059 -44.8185 
0.655192 0.566304 -45.1503 1.50353 0.550311 -45.1929 2.34981 0.525488 -45.1839 
3.19625 0.491843 -45.1363 4.04454 0.447777 -45.0439 4.88962 0.391356 -44.8866 
5.72243 0.209137 -44.6427 5.71985 0.319724 -44.6349 5.7315 0.318522 -44.6295 
-0.175965 1.42098 -44.9015 -0.918806 1.4147 -44.6999 0.669811 1.41485 -45.0223 
1.51332 1.39813 -45.0661 2.35466 1.37263 -45.0565 3.19538 1.3387 -45.003 
4.03614 1.29522 -44.9021 4.87218 1.24013 -44.7365 5.57822 1.18092 -44.5178 
5.71604 0.420501 -44.6166 -0.161092 2.25501 -44.679 -0.601177 2.25087 -44.5573 
0.680642 2.24993 -44.811 1.52017 2.23419 -44.8652 2.35758 2.20914 -44.8586 
3.19353 2.17586 -44.8013 4.02779 2.13331 -44.6883 4.85542 2.0791 -44.5059 
5.21113 2.05025 -44.3909 -0.150842 2.90409 -44.4198 0.0200275 3.07424 -44.3782 
0.688907 3.07247 -44.4966 1.52455 3.05932 -44.5644 2.35795 3.0371 -44.5665 
3.18952 3.00581 -44.5077 4.01819 2.96381 -44.3817 4.57861 2.92748 -44.2462 
4.84444 2.6253 -44.2972 0.693135 3.56802 -44.2464 1.39416 3.87403 -44.1537 
1.5264 3.87301 -44.1685 2.35567 3.85462 -44.1808 3.18275 3.82547 -44.1217 
3.26936 3.82106 -44.1071 4.01166 3.41966 -44.1658 1.52646 3.92213 -44.1393 
2.35492 4.0038 -44.0956 3.18234 3.86015 -44.102 0.570053 -3.92055 -44.5781 
0.569485 -3.98924 -44.5436 0.422871 -3.91997 -44.5386 1.45348 -3.92842 -44.7218 
1.45171 -4.26778 -44.5542 2.33215 -3.94355 -44.7762 2.33129 -4.40758 -44.5473 
3.21023 -3.96697 -44.7362 3.21104 -4.40626 -44.5172 4.09066 -4.00036 -44.5886 
4.09197 -4.25475 -44.4592 4.72146 -4.033 -44.3965 -0.297366 -2.99246 -44.7126 
-0.307565 -3.52326 -44.5084 -1.00821 -3.00079 -44.4599 0.58229 -2.99172 -44.9155 
1.45988 -3.00041 -45.0358 2.33372 -3.0178 -45.081 3.20729 -3.04451 -45.0436 
4.08274 -3.08182 -44.91 4.9657 -3.9311 -44.3694 4.95513 -3.13346 -44.6725 
5.81203 -3.20364 -44.3237 5.81475 -3.399 -44.2453 6.02418 -3.22468 -44.2084 
-1.1414 -2.08819 -44.6542 -1.16711 -2.85156 -44.4434 -1.78368 -2.10567 -44.3485 
-0.274231 -2.07671 -44.9364 0.596934 -2.07693 -45.1173 4.94105 -2.23282 -44.8758 
5.79273 -2.3053 -44.5614 6.62761 -2.57286 -44.0875 6.62438 -2.398 -44.1417 
6.74874 -2.41406 -44.0617 -1.96249 -1.21112 -44.4027 -1.98668 -1.77016 -44.3008 
-2.26467 -1.22436 -44.2216 -1.10554 -1.1867 -44.788 5.77061 -1.41852 -44.6807 
6.5966 -1.51036 -44.2966 7.16765 -1.58574 -43.9446 -1.92437 -0.325424 -44.4679 
-2.56323 -0.354871 -44.0951 -1.07127 -0.302514 -44.8323 5.7459 -0.543242 -44.702 
6.56478 -0.63307 -44.3409 7.36938 -0.845381 -43.8556 7.36613 -0.738066 -43.8657 
7.39532 -0.742292 -43.8443 -1.89532 0.542514 -44.4467 -2.72483 0.503917 -43.9753 
-1.04383 0.56409 -44.7964 6.53178 0.23296 -44.2887 7.32969 0.131395 -43.8367 
7.45689 0.113131 -43.7455 -2.73027 1.35413 -43.861 -2.73274 1.20145 -43.877 
-2.73507 1.35375 -43.8566 -1.8728 1.39262 -44.3324 -1.02196 1.41357 -44.671 
5.69351 1.17084 -44.4823 6.50019 1.08756 -44.148 7.29437 0.989292 -43.7124 
7.39844 0.974603 -43.6403 -2.72879 1.39386 -43.8504 -2.58522 2.19609 -43.7302 
-1.85391 2.22689 -44.1196 -1.00449 2.24712 -44.4476 5.6697 2.01227 -44.2474 
6.47068 1.93223 -43.9208 7.22195 1.84148 -43.52 7.26716 1.63306 -43.5502 
-1.83578 3.04852 -43.8083 -2.27291 3.03152 -43.5846 -0.989438 3.06722 -44.125 
-0.148744 3.07479 -44.3494 4.83971 2.91039 -44.1857 5.64885 2.84546 -43.93 
6.44517 2.76772 -43.6116 6.90416 2.71369 -43.3753 -1.81721 3.83863 -43.4145 
-1.80433 3.85781 -43.4101 -0.976279 3.87592 -43.7207 -0.139237 3.88329 -43.9403 
0.694877 3.88224 -44.0876 4.00691 3.78474 -43.9935 4.82426 3.73223 -43.8017 
5.62891 3.66763 -43.5505 6.41869 3.58943 -43.2325 6.4539 3.58509 -43.2139 
-0.964005 4.67564 -43.2499 -1.0987 4.67209 -43.1982 -0.132238 4.68455 -43.4779 
0.697914 4.68528 -43.6294 1.52552 4.67855 -43.7149 2.3507 4.66322 -43.7342 
3.17357 4.6362 -43.6831 3.99357 4.59641 -43.5642 4.8064 4.54212 -43.3774 
5.60535 4.47474 -43.125 5.78332 4.45613 -43.0502 6.41618 3.64273 -43.2027 
-0.961449 4.80636 -43.1622 -0.125733 5.45152 -42.9887 -0.0805729 5.47642 -42.9816 
0.698973 5.48057 -43.1417 1.52215 5.47575 -43.2371 2.34329 5.46149 -43.2649 
3.16203 5.43446 -43.2229 3.97699 5.39176 -43.1086 4.78344 5.33279 -42.9199 
4.79451 5.33149 -42.9154 5.5982 4.65392 -43.0173 0.699571 5.86176 -42.8832 
1.51879 6.0922 -42.827 2.33518 6.15302 -42.8089 3.15064 6.04813 -42.82 
3.96652 5.77851 -42.8548 4.78295 5.33987 -42.9142 0.55936 -4.84973 -44.0731 
0.556439 -5.18501 -43.8374 -0.326664 -4.84265 -43.8205 1.44766 -4.86048 -44.2265 
1.44502 -5.40722 -43.8358 2.33025 -4.87512 -44.2841 2.32911 -5.51591 -43.8168 
3.21195 -4.89594 -44.2373 3.21219 -5.51139 -43.7799 4.09578 -4.92511 -44.0734 
4.09652 -5.3892 -43.7264 4.97552 -4.96811 -43.7847 4.97584 -5.14211 -43.655 
5.32343 -4.99013 -43.6177 -1.20025 -3.92594 -44.0087 -1.21037 -4.3295 -43.7779 
-1.72499 -3.93361 -43.7381 -0.316111 -3.91969 -44.3415 -0.3328 -4.84007 -43.8203 
4.96763 -4.04818 -44.3195 5.83371 -4.74036 -43.5593 5.82754 -4.11436 -43.9339 
6.64671 -4.20009 -43.4436 -2.04374 -3.02543 -43.9627 -2.06615 -3.61424 -43.7016 
-2.55297 -3.04413 -43.6283 -1.17257 -3.00356 -44.3977 6.64627 -3.29476 -43.859 
6.66255 -4.18706 -43.4408 7.45044 -3.40058 -43.2929 -2.86485 -2.15278 -43.6846 
-2.88333 -2.54621 -43.5563 -3.10227 -2.16681 -43.4991 -2.00373 -2.11322 -44.2363 
7.43459 -2.50676 -43.6059 7.45684 -3.39183 -43.2913 7.97827 -2.58565 -43.163 
-2.81938 -1.25296 -43.8694 -3.47951 -1.29732 -43.3619 7.40217 -1.61824 -43.7906 
8.20309 -2.06019 -43.089 8.19312 -1.7346 -43.1695 8.32341 -1.75475 -43.049 
-3.64523 -0.427365 -43.3117 -3.65587 -0.726862 -43.2713 -3.74357 -0.435617 -43.2268 
-2.7801 -0.36673 -43.959 8.15486 -0.8539 -43.2673 8.51559 -0.910334 -42.9423 
-3.61684 0.442734 -43.3283 -3.88924 0.419491 -43.0953 -2.75188 0.502475 -43.9593 
8.11715 0.0173454 -43.2613 8.60655 -0.0586158 -42.8368 -3.59493 1.29681 -43.2465 
-3.92402 1.26955 -42.9686 8.08067 0.878066 -43.1642 8.60503 0.798304 -42.7304 
-3.57268 2.13755 -43.0695 -3.846 2.11634 -42.8454 -2.70973 2.19025 -43.6594 
7.26056 1.8367 -43.4987 8.04457 1.72923 -42.9838 8.50274 1.66035 -42.6221 
-3.54565 2.96818 -42.8057 -3.65015 2.96064 -42.7233 -2.68759 3.01508 -43.3657 
7.22897 2.67461 -43.2058 8.00637 2.57025 -42.7226 8.28802 2.52767 -42.509 
-3.5326 3.27688 -42.6743 -3.31717 3.79807 -42.5904 -2.66323 3.82981 -42.9949 
-1.81711 3.85783 -43.406 7.19548 3.49889 -42.8502 7.95523 3.39589 -42.3866 
7.96139 3.38138 -42.389 -2.63636 4.63479 -42.557 -2.8482 4.62525 -42.4333 
-1.79831 4.65922 -42.9446 6.38759 4.39509 -42.8113 7.15535 4.30533 -42.4426 
7.47832 4.26118 -42.2496 -2.624 4.93904 -42.3646 -2.21302 5.4372 -42.2471 
-1.77819 5.45132 -42.4483 -0.951233 5.46678 -42.7432 -0.125648 5.47679 -42.9739 
5.57543 5.26176 -42.6704 6.35039 5.18131 -42.365 6.86331 5.11823 -42.1072 
7.125 4.77967 -42.1634 -1.76401 5.90717 -42.1339 -1.39007 6.23517 -42.055 
-0.937002 6.24808 -42.2282 -0.118686 6.25977 -42.4595 0.699962 6.26292 -42.6219 
1.51779 6.25718 -42.7202 2.33413 6.24076 -42.7528 3.14771 6.21014 -42.7152 
3.9564 6.1638 -42.6074 4.75659 6.10305 -42.4326 5.54169 6.02971 -42.1878 
6.05721 5.9719 -41.9706 6.31935 5.72653 -42.009 -0.928574 6.60447 -41.9768 
-0.243108 7.02552 -41.894 -0.108665 7.02872 -41.935 0.702772 7.03261 -42.0963 
1.51447 7.02309 -42.1855 2.32493 7.00068 -42.2123 3.13236 6.96575 -42.1783 
3.93433 6.91603 -42.0763 4.72654 6.85166 -41.8983 4.86708 6.83731 -41.8511 
5.52185 6.41764 -41.9069 -0.107563 7.10326 -41.8815 0.705334 7.40726 -41.8192 
1.51293 7.55364 -41.7811 2.31775 7.56981 -41.7676 3.12063 7.47227 -41.7754 
3.92237 7.26185 -41.7999 4.7233 6.92255 -41.8414 -0.343995 -5.74274 -43.083 
-0.34414 -5.76217 -43.0635 -0.392316 -5.7419 -43.0624 0.553125 -5.75896 -43.3563 
0.552617 -6.04171 -43.0704 1.44422 -5.77571 -43.5167 1.44459 -6.21294 -43.0569 
2.32888 -5.79231 -43.5693 2.32855 -6.29281 -43.0283 3.21167 -5.81093 -43.507 
3.20943 -6.28635 -42.9882 4.09507 -5.8367 -43.3207 4.09158 -6.19038 -42.9387 
4.9723 -5.87527 -43.0021 4.97055 -5.99274 -42.8782 5.25453 -5.89107 -42.853 
-1.22363 -4.83962 -43.4464 -1.23527 -5.35071 -43.0325 -2.04933 -4.84423 -42.9835 
-0.332758 -4.84242 -43.8185 5.835 -5.02937 -43.3555 5.83139 -5.66974 -42.8004 
6.66643 -5.11179 -42.8019 6.66573 -5.22552 -42.7058 6.80757 -5.12778 -42.6863 
-2.95619 -3.96757 -42.918 -2.95824 -4.01566 -42.8861 -2.99941 -3.96905 -42.8802 
-2.07932 -3.94071 -43.5388 -2.11244 -4.79804 -42.9786 6.66263 -4.20173 -43.4327 
7.46748 -4.60633 -42.5874 7.46752 -4.30443 -42.7987 7.74309 -4.34189 -42.5403 
-2.90943 -3.05987 -43.3719 -3.62327 -3.09995 -42.7587 7.45701 -3.40139 -43.2874 
8.24074 -3.75563 -42.4413 8.23994 -3.51299 -42.5782 8.40378 -3.53703 -42.4061 
-3.72916 -2.20924 -42.9664 -3.76292 -2.853 -42.7211 -4.08246 -2.23707 -42.6257 
8.22285 -2.62169 -42.9434 8.86426 -2.71881 -42.2805 -3.68368 -1.31299 -43.1906 
-4.4268 -1.37837 -42.4882 8.96236 -1.85433 -42.4076 8.97682 -2.43257 -42.2382 
9.18064 -1.88967 -42.1621 -4.52433 -0.507774 -42.5037 -4.54298 -0.980643 -42.4234 
-4.67632 -0.523201 -42.3511 8.92837 -0.975775 -42.5407 9.38348 -1.05097 -42.0471 
[...]
POINT_DATA 21510
SCALARS scalars float
LOOKUP_TABLE default
120 120 120 120 120 120 120 120 120 
120 120 120 120 120 120 120 120 120 
120 120 120 120 120 120 120 120 120 
120 120 120 120 120 120 120 120 120 
120 120 120 120 120 120 120 120 120 
120 120 120 120 120 120 120 120 120 
120 120 120 120 120 120 120 120 120 
120 120 120 120 120 120 120 120 120 
120 120 120 120 120 120 120 120 120 
120 120 120 120 120 120 120 120 120 
120 120 120 120 120 120 120 120 120 
120 120 120 120 120 120 120 120 120 
120 120 120 120 120 120 120 120 120 
120 120 120 120 120 120 120 120 120 
120 120 120 120 120 120 120 120 120 
120 120 120 120 120 120 120 120 120 
120 120 120 120 120 120 120 120 120 
120 120 120 120 120 120 120 120 120 
120 120 120 120 120 120 120 120 120 
120 120 120 120 120 120 120 120 120 
120 120 120 120 120 120 120 120 120 
120 120 120 120 120 120 120 120 120 
120 120 120 120 120 120 120 120 120 
120 120 120 120 120 120 120 120 120 
120 120 120 120 120 120 120 120 120 
120 120 120 120 120 120 120 120 120 
120 120 120 120 120 120 120 120 120 
120 120 120 120 120 120 120 120 120 
120 120 120 120 120 120 120 120 120 
120 120 120 120 120 120 120 120 120 
120 120 120 120 120 120 120 120 120 
120 120 120 120 120 120 120 120 120 
120 120 120 120 120 120 120 120 120 
120 120 120 120 120 120 120 120 120 
120 120 120 120 120 120 120 120 120 
120 120 120 120 120 120 120 120 120 
120 120 120 120 120 120 120 120 120 
120 120 120 120 120 120 120 120 120 
120 120 120 120 120 120 120 120 120 
120 120 120 120 120 120 120 120 120 
120 120 120 120 120 120 120 120 120 
120 120 120 120 120 120 120 120 120 
120 120 120 120 120 120 120 120 120 
120 120 120 120 120 120 120 120 120 
120 120 120 120 120 120 120 120 120 
120 120 120 120 120 120 120 120 120 
120 120 120 120 120 120 120 120 120 
120 120 120 120 120 120 120 120 120 
120 120 120 120 120 120 120 120 120 
120 120 120 120 120 120 120 120 120 
120 120 120 120 120 120 120 120 120 
120 120 120 120 120 120 120 120 120 
120 120 120 120 120 120 120 120 120 
120 120 120 120 120 120 120 120 120 
120 120 120 120 120 120 120 120 120 
120 120 120 120 120 120 120 120 120 
120 120 120 120 120 120 120 120 120 
120 120 120 120 120 120 120 120 120 
120 120 120 120 120 120 120 120 120 
120 120 120 120 120 120 120 120 120 
120 120 120 120 120 120 120 120 120 
120 120 120 120 120 120 120 120 120 
120 120 120 120 120 120 120 120 120 
120 120 120 120 120 120 120 120 120 
120 120 120 120 120 120 120 120 120 
120 120 120 120 120 120 120 120 120 
120 120 120 120 120 120 120 120 120 
120 120 120 120 120 120 120 120 120 
120 120 120 120 120 120 120 120 120 
120 120 120 120 120 120 120 120 120 
120 120 120 120 120 120 120 120 120 
120 120 120 120 120 120 120 120 120 
120 120 120 120 120 120 120 120 120 
120 120 120 120 120 120 120 120 120 
120 120 120 120 120 120 120 120 120 
120 120 120 120 120 120 120 120 120 
120 120 120 120 120 120 120 120 120 
120 120 120 120 120 120 120 120 120 
120 120 120 120 120 120 120 120 120 
120 120 120 120 120 120 120 120 120 
120 120 120 120 120 120 120 120 120 
120 120 120 120 120 120 120 120 120 
120 120 120 120 120 120 120 120 120 
120 120 120 120 120 120 120 120 120 
120 120 120 120 120 120 120 120 120 
120 120 120 120 120 120 120 120 120 
120 120 120 120 120 120 120 120 120 
120 120 120 120 120 120 120 120 120 
120 120 120 120 120 120 120 120 120 
120 120 120 120 120 120 120 120 120 
120 120 120 120 120 120 120 120 120 
120 120 120 120 120 120 120 120 120 
120 120 120 120 120 120 120 120 120 
120 120 120 120 120 120 120 120 120 
120 120 120 120 120 120 120 120 120 
120 120 120 120 120 120 120 120 120 
120 120 120 120 120 120 120 120 120 
120 120 120 120 120 120 120 120 120 
120 120 120 120 120 120 120 120 120 
120 120 120 120 120 120 120 120 120 
120 120 120 120 120 120 120 120 120 
120 120 120 120 120 120 120 120 120 
120 120 120 120 120 120 120 120 120 
120 120 120 120 120 120 120 120 120 
120 120 120 120 120 120 120 120 120 
120 120 120 120 120 120 120 120 120 
120 120 120 120 120 120 120 120 120 
120 120 120 120 120 120 120 120 120 
120 120 120 120 120 120 120 120 120 
120 120 120 120 120 120 120 120 120 
120 120 120 120 120 120 120 120 120 
120 120 120 120 120 120 120 120 120 
120 120 120 120 120 120 120 120 120 
120 120 120 120 120 120 120 120 120 
120 120 120 120 120 120 120 120 120 
120 120 120 120 120 120 120 120 120 
120 120 120 120 120 120 120 120 120 
120 120 120 120 120 120 120 120 120 
120 120 120 120 120 120 120 120 120 
120 120 120 120 120 120 120 120 120 
120 120 120 120 120 120 120 120 120 
120 120 120 120 120 120 120 120 120 
120 120 120 120 120 120 120 120 120 
120 120 120 120 120 120 120 120 120 
120 120 120 120 120 120 120 120 120 
120 120 120 120 120 120 120 120 120 
120 120 120 120 120 120 120 120 120 
120 120 120 120 120 120 120 120 120 
120 120 120 120 120 120 120 120 120 
120 120 120 120 120 120 120 120 120 
120 120 120 120 120 120 120 120 120 
120 120 120 120 120 120 120 120 120 
120 120 120 120 120 120 120 120 120 
120 120 120 120 120 120 120 120 120 
120 120 120 120 120 120 120 120 120 
120 120 120 120 120 120 120 120 120 
120 120 120 120 120 120 120 120 120 
120 120 120 120 120 120 120 120 120 
120 120 120 120 120 120 120 120 120 
120 120 120 120 120 120 120 120 120 
120 120 120 120 120 120 120 120 120 
120 120 120 120 120 120 120 120 120 
120 120 120 120 120 120 120 120 120 
120 120 120 120 120 120 120 120 120 
120 120 120 120 120 120 120 120 120 
120 120 120 120 120 120 120 120 120 
120 120 120 120 120 120 120 120 120 
120 120 120 120 120 120 120 120 120 
120 120 120 120 120 120 120 120 120 
120 120 120 120 120 120 120 120 120 
120 120 120 120 120 120 120 120 120 
120 120 120 120 120 120 120 120 120 
120 120 120 120 120 120 120 120 120 
120 120 120 120 120 120 120 120 120 
120 120 120 120 120 120 120 120 120 
120 120 120 120 120 120 120 120 120 
120 120 120 120 120 120 120 120 120 
120 120 120 120 120 120 120 120 120 
120 120 120 120 120 120 120 120 120 
120 120 120 120 120 120 120 120 120 
120 120 120 120 120 120 120 120 120 
120 120 120 120 120 120 120 120 120 
120 120 120 120 120 120 120 120 120 
120 120 120 120 120 120 120 120 120 
120 120 120 120 120 120 120 120 120 
120 120 120 120 120 120 120 120 120 
120 120 120 120 120 120 120 120 120 
120 120 120 120 120 120 120 120 120 
120 120 120 120 120 120 120 120 120 
120 120 120 120 120 120 120 120 120 
120 120 120 120 120 120 120 120 120 
120 120 120 120 120 120 120 120 120 
120 120 120 120 120 120 120 120 120 
120 120 120 120 120 120 120 120 120 
120 120 120 120 120 120 120 120 120 
120 120 120 120 120 120 120 120 120 
120 120 120 120 120 120 120 120 120 
120 120 120 120 120 120 120 120 120 
120 120 120 120 120 120 120 120 120 
120 120 120 120 120 120 120 120 120 
120 120 120 120 120 120 120 120 120 
120 120 120 120 120 120 120 120 120 
120 120 120 120 120 120 120 120 120 
120 120 120 120 120 120 120 120 120 
120 120 120 120 120 120 120 120 120 
120 120 120 120 120 120 120 120 120 
120 120 120 120 120 120 120 120 120 
120 120 120 120 120 120 120 120 120 
120 120 120 120 120 120 120 120 120 
120 120 120 120 120 120 120 120 120 
120 120 120 120 120 120 120 120 120 
120 120 120 120 120 120 120 120 120 
120 120 120 120 120 120 120 120 120 
120 120 120 120 120 120 120 120 120 
120 120 120 120 120 120 120 120 120 
120 120 120 120 120 120 120 120 120 
120 120 120 120 120 120 120 120 120 
120 120 120 120 120 120 120 120 120 
120 120 120 120 120 120 120 120 120 
120 120 120 120 120 120 120 120 120 
120 120 120 120 120 120 120 120 120 
120 120 120 120 120 120 120 120 120 
120 120 120 120 120 120 120 120 120 
120 120 120 120 120 120 120 120 120 
120 120 120 120 120 120 120 120 120 
120 120 120 120 120 120 120 120 120 
120 120 120 120 120 120 120 120 120 
120 120 120 120 120 120 120 120 120 
120 120 120 120 120 120 120 120 120 
120 120 120 120 120 120 120 120 120 
120 120 120 120 120 120 120 120 120 
120 120 120 120 120 120 120 120 120 
120 120 120 120 120 120 120 120 120 
120 120 120 120 120 120 120 120 120 
120 120 120 120 120 120 120 120 120 
120 120 120 120 120 120 120 120 120 
120 120 120 120 120 120 120 120 120 
120 120 120 120 120 120 120 120 120 
120 120 120 120 120 120 120 120 120 
120 120 120 120 120 120 120 120 120 
120 120 120 120 120 120 120 120 120 
120 120 120 120 120 120 120 120 120 
120 120 120 120 120 120 120 120 120 
120 120 120 120 120 120 120 120 120 
120 120 120 120 120 120 120 120 120 
120 120 120 120 120 120 120 120 120 
120 120 120 120 120 120 120 120 120 
120 120 120 120 120 120 120 120 120 
120 120 120 120 120 120 120 120 120 
120 120 120 120 120 120 120 120 120 
120 120 120 120 120 120 120 120 120 
120 120 120 120 120 120 120 120 120 
120 120 120 120 120 120 120 120 120 
120 120 120 120 120 120 120 120 120 
120 120 120 120 120 120 120 120 120 
120 120 120 120 120 120 120 120 120 
120 120 120 120 120 120 120 120 120 
120 120 120 120 120 120 120 120 120 
120 120 120 120 120 120 120 120 120 
120 120 120 120 120 120 120 120 120 
120 120 120 120 120 120 120 120 120 
120 120 120 120 120 120 120 120 120 
120 120 120 120 120 120 120 120 120 
120 120 120 120 120 120 120 120 120 
120 120 120 120 120 120 120 120 120 
120 120 120 120 120 120 120 120 120 
120 120 120 120 120 120 120 120 120 
120 120 120 120 120 120 120 120 120 
120 120 120 120 120 120 120 120 120 
120 120 120 120 120 120 120 120 120 
120 120 120 120 120 120 120 120 120 
120 120 120 120 120 120 120 120 120 
120 120 120 120 120 120 120 120 120 
120 120 120 120 120 120 120 120 120 
120 120 120 120 120 120 120 120 120 
120 120 120 120 120 120 120 120 120 
120 120 120 120 120 120 120 120 120 
120 120 120 120 120 120 120 120 120 
120 120 120 120 120 120 120 120 120 
120 120 120 120 120 120 120 120 120 
120 120 120 120 120 120 120 120 120 
120 120 120 120 120 120 120 120 120 
120 120 120 120 120 120 120 120 120 
120 120 120 120 120 120 120 120 120 
120 120 120 120 120 120 120 120 120 
120 120 120 120 120 120 120 120 120 
120 120 120 120 120 120 120 120 120 
120 120 120 120 120 120 120 120 120 
120 120 120 120 120 120 120 120 120 
120 120 120 120 120 120 120 120 120 
120 120 120 120 120 120 120 120 120 
120 120 120 120 120 120 120 120 120 
120 120 120 120 120 120 120 120 120 
120 120 120 120 120 120 120 120 120 
120 120 120 120 120 120 120 120 120 
120 120 120 120 120 120 120 120 120 
120 120 120 120 120 120 120 120 120 
120 120 120 120 120 120 120 120 120 
120 120 120 120 120 120 120 120 120 
120 120 120 120 120 120 120 120 120 
120 120 120 120 120 120 120 120 120 
120 120 120 120 120 120 120 120 120 
120 120 120 120 120 120 120 120 120 
120 120 120 120 120 120 120 120 120 
120 120 120 120 120 120 120 120 120 
120 120 120 120 120 120 120 120 120 
120 120 120 120 120 120 120 120 120 
120 120 120 120 120 120 120 120 120 
120 120 120 120 120 120 120 120 120 
120 120 120 120 120 120 120 120 120 
120 120 120 120 120 120 120 120 120 
120 120 120 120 120 120 120 120 120 
120 120 120 120 120 120 120 120 120 
120 120 120 120 120 120 120 120 120 
120 120 120 120 120 120 120 120 120 
120 120 120 120 120 120 120 120 120 
120 120 120 120 120 120 120 120 120 
120 120 120 120 120 120 120 120 120 
120 120 120 120 120 120 120 120 120 
120 120 120 120 120 120 120 120 120 
120 120 120 120 120 120 120 120 120 
120 120 120 120 120 120 120 120 120 
120 120 120 120 120 120 120 120 120 
120 120 120 120 120 120 120 120 120 
120 120 120 120 120 120 120 120 120 
120 120 120 120 120 120 120 120 120 
120 120 120 120 120 120 120 120 120 
120 120 120 120 120 120 120 120 120 
120 120 120 120 120 120 120 120 120 
120 120 120 120 120 120 120 120 120 
120 120 120 120 120 120 120 120 120 
120 120 120 120 120 120 120 120 120 
120 120 120 120 120 120 120 120 120 
120 120 120 120 120 120 120 120 120 
120 120 120 120 120 120 120 120 120 
120 120 120 120 120 120 120 120 120 
120 120 120 120 120 120 120 120 120 
120 120 120 120 120 120 120 120 120 
120 120 120 120 120 120 120 120 120 
120 120 120 120 120 120 120 120 120 
120 120 120 120 120 120 120 120 120 
120 120 120 120 120 120 120 120 120 
120 120 120 120 120 120 120 120 120 
120 120 120 120 120 120 120 120 120 
120 120 120 120 120 120 120 120 120 
120 120 120 120 120 120 120 120 120 
120 120 120 120 120 120 120 120 120 
120 120 120 120 120 120 120 120 120 
120 120 120 120 120 120 120 120 120 
120 120 120 120 120 120 120 120 120 
120 120 120 120 120 120 120 120 120 
120 120 120 120 120 120 120 120 120 
120 120 120 120 120 120 120 120 120 
120 120 120 120 120 120 120 120 120 
120 120 120 120 120 120 120 120 120 
120 120 120 120 120 120 120 120 120 
120 120 120 120 120 120 120 120 120 
120 120 120 120 120 120 120 120 120 
120 120 120 120 120 120 120 120 120 
120 120 120 120 120 120 120 120 120 
120 120 120 120 120 120 120 120 120 
120 120 120 120 120 120 120 120 120 
120 120 120 120 120 120 120 120 120 
120 120 120 120 120 120 120 120 120 
120 120 120 120 120 120 120 120 120 
120 120 120 120 120 120 120 120 120 
120 120 120 120 120 120 120 120 120 
120 120 120 120 120 120 120 120 120 
120 120 120 120 120 120 120 120 120 
120 120 120 120 120 120 120 120 120 
120 120 120 120 120 120 120 120 120 
120 120 120 120 120 120 120 120 120 
120 120 120 120 120 120 120 120 120 
120 120 120 120 120 120 120 120 120 
120 120 120 120 120 120 120 120 120 
120 120 120 120 120 120 120 120 120 
120 120 120 120 120 120 120 120 120 
120 120 120 120 120 120 120 120 120 
120 120 120 120 120 120 120 120 120 
120 120 120 120 120 120 120 120 120 
120 120 120 120 120 120 120 120 120 
120 120 120 120 120 120 120 120 120 
120 120 120 120 120 120 120 120 120 
120 120 120 120 120 120 120 120 120 
120 120 120 120 120 120 120 120 120 
120 120 120 120 120 120 120 120 120 
120 120 120 120 120 120 120 120 120 
120 120 120 120 120 120 120 120 120 
120 120 120 120 120 120 120 120 120 
120 120 120 120 120 120 120 120 120 
120 120 120 120 120 120 120 120 120 
120 120 120 120 120 120 120 120 120 
120 120 120 120 120 120 120 120 120 
120 120 120 120 120 120 120 120 120 
120 120 120 120 120 120 120 120 120 
120 120 120 120 120 120 120 120 120 
120 120 120 120 120 120 120 120 120 
120 120 120 120 120 120 120 120 120 
120 120 120 120 120 120 120 120 120 
120 120 120 120 120 120 120 120 120 
120 120 120 120 120 120 120 120 120 
120 120 120 120 120 120 120 120 120 
120 120 120 120 120 120 120 120 120 
120 120 120 120 120 120 120 120 120 
120 120 120 120 120 120 120 120 120 
120 120 120 120 120 120 120 120 120 
120 120 120 120 120 120 120 120 120 
120 120 120 120 120 120 120 120 120 
120 120 120 120 120 120 120 120 120 
120 120 120 120 120 120 120 120 120 
120 120 120 120 120 120 120 120 120 
120 120 120 120 120 120 120 120 120 
120 120 120 120 120 120 120 120 120 
120 120 120 120 120 120 120 120 120 
120 120 120 120 120 120 120 120 120 
120 120 120 120 120 120 120 120 120 
120 120 120 120 120 120 120 120 120 
120 120 120 120 120 120 120 120 120 
120 120 120 120 120 120 120 120 120 
120 120 120 120 120 120 120 120 120 
120 120 120 120 120 120 120 120 120 
120 120 120 120 120 120 120 120 120 
120 120 120 120 120 120 120 120 120 
120 120 120 120 120 120 120 120 120 
120 120 120 120 120 120 120 120 120 
120 120 120 120 120 120 120 120 120 
120 120 120 120 120 120 120 120 120 
120 120 120 120 120 120 120 120 120 
120 120 120 120 120 120 120 120 120 
120 120 120 120 120 120 120 120 120 
120 120 120 120 120 120 120 120 120 
120 120 120 120 120 120 120 120 120 
120 120 120 120 120 120 120 120 120 
120 120 120 120 120 120 120 120 120 
120 120 120 120 120 120 120 120 120 
120 120 120 120 120 120 120 120 120 
120 120 120 120 120 120 120 120 120 
120 120 120 120 120 120 120 120 120 
120 120 120 120 120 120 120 120 120 
120 120 120 120 120 120 120 120 120 
120 120 120 120 120 120 120 120 120 
120 120 120 120 120 120 120 120 120 
120 120 120 120 120 120 120 120 120 
120 120 120 120 120 120 120 120 120 
120 120 120 120 120 120 120 120 120 
120 120 120 120 120 120 120 120 120 
120 120 120 120 120 120 120 120 120 
120 120 120 120 120 120 120 120 120 
120 120 120 120 120 120 120 120 120 
120 120 120 120 120 120 120 120 120 
120 120 120 120 120 120 120 120 120 
120 120 120 120 120 120 120 120 120 
120 120 120 120 120 120 120 120 120 
120 120 120 120 120 120 120 120 120 
120 120 120 120 120 120 120 120 120 
120 120 120 120 120 120 120 120 120 
120 120 120 120 120 120 120 120 120 
120 120 120 120 120 120 120 120 120 
120 120 120 120 120 120 120 120 120 
120 120 120 120 120 120 120 120 120 
120 120 120 120 120 120 120 120 120 
120 120 120 120 120 120 120 120 120 
120 120 120 120 120 120 120 120 120 
120 120 120 120 120 120 120 120 120 
120 120 120 120 120 120 120 120 120 
120 120 120 120 120 120 120 120 120 
120 120 120 120 120 120 120 120 120 
120 120 120 120 120 120 120 120 120 
120 120 120 120 120 120 120 120 120 
120 120 120 120 120 120 120 120 120 
120 120 120 120 120 120 120 120 120 
120 120 120 120 120 120 120 120 120 
120 120 120 120 120 120 120 120 120 
120 120 120 120 120 120 120 120 120 
120 120 120 120 120 120 120 120 120 
120 120 120 120 120 120 120 120 120 
120 120 120 120 120 120 120 120 120 
120 120 120 120 120 120 120 120 120 
120 120 120 120 120 120 120 120 120 
120 120 120 120 120 120 120 120 120 
120 120 120 120 120 120 120 120 120 
120 120 120 120 120 120 120 120 120 
120 120 120 120 120 120 120 120 120 
120 120 120 120 120 120 120 120 120 
120 120 120 120 120 120 120 120 120 
120 120 120 120 120 120 120 120 120 
120 120 120 120 120 120 120 120 120 
120 120 120 120 120 120 120 120 120 
120 120 120 120 120 120 120 120 120 
120 120 120 120 120 120 120 120 120 
120 120 120 120 120 120 120 120 120 
120 120 120 120 120 120 120 120 120 
120 120 120 120 120 120 120 120 120 
120 120 120 120 120 120 120 120 120 
120 120 120 120 120 120 120 120 120 
120 120 120 120 120 120 120 120 120 
120 120 120 120 120 120 120 120 120 
120 120 120 120 120 120 120 120 120 
120 120 120 120 120 120 120 120 120 
120 120 120 120 120 120 120 120 120 
120 120 120 120 120 120 120 120 120 
120 120 120 120 120 120 120 120 120 
120 120 120 120 120 120 120 120 120 
120 120 120 120 120 120 120 120 120 
120 120 120 120 120 120 120 120 120 
120 120 120 120 120 120 120 120 120 
120 120 120 120 120 120 120 120 120 
120 120 120 120 120 120 120 120 120 
120 120 120 120 120 120 120 120 120 
120 120 120 120 120 120 120 120 120 
120 120 120 120 120 120 120 120 120 
120 120 120 120 120 120 120 120 120 
120 120 120 120 120 120 120 120 120 
120 120 120 120 120 120 120 120 120 
120 120 120 120 120 120 120 120 120 
120 120 120 120 120 120 120 120 120 
120 120 120 120 120 120 120 120 120 
120 120 120 120 120 120 120 120 120 
120 120 120 120 120 120 120 120 120 
120 120 120 120 120 120 120 120 120 
120 120 120 120 120 120 120 120 120 
120 120 120 120 120 120 120 120 120 
120 120 120 120 120 120 120 120 120 
120 120 120 120 120 120 120 120 120 
120 120 120 120 120 120 120 120 120 
120 120 120 120 120 120 120 120 120 
120 120 120 120 120 120 120 120 120 
120 120 120 120 120 120 120 120 120 
120 120 120 120 120 120 120 120 120 
120 120 120 120 120 120 120 120 120 
120 120 120 120 120 120 120 120 120 
120 120 120 120 120 120 120 120 120 
120 120 120 120 120 120 120 120 120 
120 120 120 120 120 120 120 120 120 
120 120 120 120 120 120 120 120 120 
120 120 120 120 120 120 120 120 120 
120 120 120 120 120 120 120 120 120 
120 120 120 120 120 120 120 120 120 
120 120 120 120 120 120 120 120 120 
120 120 120 120 120 120 120 120 120 
120 120 120 120 120 120 120 120 120 
120 120 120 120 120 120 120 120 120 
120 120 120 120 120 120 120 120 120 
120 120 120 120 120 120 120 120 120 
120 120 120 120 120 120 120 120 120 
120 120 120 120 120 120 120 120 120 
120 120 120 120 120 120 120 120 120 
120 120 120 120 120 120 120 120 120 
120 120 120 120 120 120 120 120 120 
120 120 120 120 120 120 120 120 120 
120 120 120 120 120 120 120 120 120 
120 120 120 120 120 120 120 120 120 
120 120 120 120 120 120 120 120 120 
120 120 120 120 120 120 120 120 120 
120 120 120 120 120 120 120 120 120 
120 120 120 120 120 120 120 120 120 
120 120 120 120 120 120 120 120 120 
120 120 120 120 120 120 120 120 120 