# vtk DataFile Version 3.0
vtk output
ASCII
DATASET POLYDATA
POINTS 29146 float
-0.5938 -1.75962 -48.6156 -0.595165 -1.79697 -48.6086 -0.65715 -1.75844 -48.6103 
0.328715 -1.78392 -48.6384 0.323605 -2.16956 -48.5731 1.27088 -1.81174 -48.6284 
1.27024 -2.35252 -48.5426 2.22814 -1.83771 -48.5984 2.22951 -2.34132 -48.5224 
3.19563 -1.86363 -48.5341 3.19641 -2.1524 -48.491 3.95306 -1.88649 -48.4453 
-1.43285 -0.803013 -48.6492 -1.45465 -1.1109 -48.6121 -1.71275 -0.8037 -48.5979 
-0.547739 -0.813282 -48.7339 0.358738 -0.833774 -48.7527 1.28749 -0.859286 -48.7344 
2.23595 -0.886275 -48.6931 3.19773 -0.915981 -48.6229 4.16781 -1.79442 -48.4283 
4.16607 -0.951359 -48.5134 5.13033 -0.997522 -48.3525 5.13173 -1.21211 -48.3282 
5.37619 -1.01239 -48.2973 -1.35808 0.121059 -48.6959 -2.1834 0.118277 -48.522 
-0.483478 0.113256 -48.7849 0.408499 0.0969056 -48.8054 1.32192 0.0743323 -48.7814 
2.25663 0.0472775 -48.7284 3.20675 0.0150078 -48.6495 4.16592 -0.0248382 -48.5418 
5.12333 -0.0762958 -48.3951 6.06249 -0.204723 -48.1878 6.06154 -0.143119 -48.1912 
6.09986 -0.146299 -48.1803 -2.14914 1.02762 -48.4787 -2.21139 0.249882 -48.5088 
-2.32769 1.02536 -48.4221 -1.28226 1.02768 -48.6698 -0.411748 1.01944 -48.766 
0.470445 1.00419 -48.7901 1.36991 0.982965 -48.7649 2.28811 0.956904 -48.7056 
3.2222 0.924702 -48.6211 4.16817 0.884107 -48.5113 5.11577 0.831348 -48.3665 
6.04638 0.762688 -48.1709 6.40689 0.729728 -48.0717 -2.08688 1.91867 -48.3732 
-2.28324 1.91682 -48.3096 -1.21436 1.91631 -48.5741 -0.343268 1.90591 -48.6803 
0.533664 1.88941 -48.7122 1.42157 1.8685 -48.6912 2.32347 1.84399 -48.6329 
3.24011 1.81409 -48.5462 4.17123 1.77567 -48.4302 5.10759 1.72435 -48.2769 
6.02895 1.65602 -48.0765 6.47212 1.61494 -47.9535 -2.03964 2.78916 -48.1986 
-2.07596 2.78889 -48.1869 -1.16187 2.78621 -48.4093 -0.28856 2.77444 -48.5285 
0.585939 2.75713 -48.5734 1.46548 2.7368 -48.5634 2.35399 2.71436 -48.5132 
3.25535 2.68751 -48.4279 4.17264 2.65243 -48.3037 5.09787 2.60401 -48.1349 
6.01012 2.53761 -47.9198 6.33389 2.50813 -47.8268 -2.03559 2.88236 -48.1732 
-1.6429 3.63833 -48.0502 -1.12944 3.63739 -48.1725 -0.254982 3.62701 -48.3056 
0.618368 3.61079 -48.368 1.4932 3.59206 -48.3763 2.37328 3.57222 -48.3407 
3.26425 3.54851 -48.2613 4.17102 3.51655 -48.1313 5.08682 3.47118 -47.946 
5.99123 3.40762 -47.7117 6.02426 3.40482 -47.7016 -1.11411 4.34393 -47.913 
-0.985558 4.47502 -47.8847 -0.237972 4.46932 -48.0082 0.634568 4.45657 -48.0895 
1.50705 4.44124 -48.1186 2.38285 4.42439 -48.1023 3.2678 4.40317 -48.0353 
4.16723 4.37326 -47.9058 5.07539 4.32921 -47.711 5.46871 4.30371 -47.6028 
5.99002 3.46967 -47.6939 -0.231418 5.07093 -47.7446 0.190501 5.30734 -47.6838 
0.641629 5.30412 -47.7339 1.51251 5.29425 -47.7833 2.38619 5.28107 -47.7874 
3.26784 5.26146 -47.737 4.16229 5.23029 -47.6182 4.51201 5.21317 -47.5459 
5.06963 4.76245 -47.5674 0.642801 5.52024 -47.6284 1.51385 5.76555 -47.563 
2.38663 5.84782 -47.5351 3.26701 5.74754 -47.5316 4.16106 5.43098 -47.5378 
0.353461 -4.69666 -48.0922 0.353664 -4.7111 -48.0881 0.30685 -4.6964 -48.0882 
1.30706 -4.71078 -48.1173 1.30927 -4.86914 -48.0735 2.25872 -4.72802 -48.0818 
2.2602 -4.87071 -48.0412 3.10772 -4.74345 -47.9949 -1.54064 -3.68983 -48.1516 
-1.54104 -3.95208 -48.0783 -1.9814 -3.69164 -48.0662 -0.609923 -3.69758 -48.2639 
-0.60173 -4.38982 -48.0885 0.336135 -3.71505 -48.3157 1.28956 -3.73684 -48.3243 
2.24589 -3.75842 -48.2962 3.21289 -4.72541 -47.9883 3.20651 -3.77818 -48.2193 
4.17296 -3.79566 -48.0824 4.17434 -4.43954 -47.9129 5.13933 -3.8172 -47.8799 
5.13955 -4.05572 -47.8137 5.58351 -3.83361 -47.7586 -2.42351 -2.71093 -48.2051 
-2.44499 -3.37627 -48.0449 -3.1865 -2.72756 -47.983 -1.52994 -2.7073 -48.3715 
-0.613965 -2.72077 -48.4566 0.322591 -2.74544 -48.4849 1.27336 -2.77257 -48.4826 
2.23302 -2.79682 -48.4583 3.19945 -2.81902 -48.3946 4.17046 -2.84089 -48.2739 
5.13821 -2.86917 -48.0889 6.08963 -3.54936 -47.6885 6.08708 -2.91497 -47.8396 
6.88832 -2.98002 -47.561 -3.24048 -1.76809 -48.1188 -3.29635 -2.60339 -47.9695 
-3.85618 -1.79179 -47.8738 -2.37239 -1.74876 -48.3742 -1.49376 -1.7459 -48.5361 
4.16804 -1.8928 -48.418 5.13552 -1.92974 -48.2458 6.08213 -1.98284 -48.0143 
7.00358 -2.88195 -47.5412 6.99477 -2.06073 -47.7161 7.67409 -2.14023 -47.4284 
-4.03937 -0.857575 -47.8555 -4.07439 -1.30426 -47.8141 -4.23947 -0.868445 -47.7576 
-3.16522 -0.82385 -48.2154 -2.30126 -0.806706 -48.4777 6.07377 -1.05839 -48.1354 
6.98226 -1.13828 -47.8591 7.86675 -1.85698 -47.3979 7.85497 -1.23805 -47.5113 
8.18526 -1.28272 -47.3485 -3.96984 0.0712101 -47.8727 -4.43177 0.04503 -47.6434 
-3.08891 0.10323 -48.2393 -2.22268 0.117989 -48.5129 6.96532 -0.225155 -47.9317 
7.83343 -0.321329 -47.61 8.52078 -0.410868 -47.2852 -3.91249 0.984012 -47.8228 
-4.49874 0.949742 -47.5351 -3.02228 1.01504 -48.1928 6.94334 0.67849 -47.9201 
7.80606 0.583207 -47.62 8.65863 0.198881 -47.2369 8.64917 0.476504 -47.2453 
8.71253 0.467739 -47.2115 -3.86755 1.87742 -47.7158 -4.45736 1.84327 -47.4361 
-2.96836 1.90811 -48.0816 6.91801 1.57126 -47.829 7.77476 1.476 -47.5454 
8.61561 1.3714 -47.1971 8.75995 1.35176 -47.125 -3.83316 2.74899 -47.5582 
-4.30794 2.72275 -47.3446 -2.92743 2.77925 -47.912 6.89175 2.45394 -47.6702 
7.74372 2.35956 -47.3963 8.58256 2.25583 -47.0675 8.678 2.24314 -47.0228 
-3.80722 3.59759 -47.3521 -4.03291 3.58644 -47.2567 -2.89874 3.62776 -47.6883 
-2.00904 3.6387 -47.9608 6.86755 3.3273 -47.4581 7.71625 3.2348 -47.1869 
8.46178 3.14401 -46.9042 8.566 2.73186 -46.9609 -3.79571 4.07896 -47.2028 
-3.60604 4.44115 -47.1569 -2.87906 4.46342 -47.4096 -1.9904 4.47561 -47.664 
-1.11201 4.47605 -47.8633 5.9735 4.26825 -47.4683 6.84569 4.19124 -47.21 
7.69181 4.10105 -46.9355 8.11499 4.05068 -46.7781 -2.8644 5.30075 -47.0703 
-3.01392 5.29721 -47.0222 -1.9774 5.31233 -47.3109 -1.1013 5.31434 -47.498 
-0.229304 5.31114 -47.6384 5.06423 5.18405 -47.4311 5.95659 5.12262 -47.1986 
6.82446 5.04618 -46.9414 7.66162 4.9583 -46.6623 7.66715 4.94817 -46.6635 
-2.86163 5.47832 -46.9876 -2.22074 6.15267 -46.8402 -1.96561 6.15454 -46.906 
-1.09141 6.15684 -47.0882 -0.222182 6.15826 -47.2266 0.645922 6.15794 -47.3241 
1.51469 6.15429 -47.3838 2.38674 6.14497 -47.4037 3.26621 6.12524 -47.373 
4.1568 6.08979 -47.2787 5.05308 6.03661 -47.1192 5.93933 5.96881 -46.9075 
6.80144 5.89 -46.6578 7.03338 5.86625 -46.5801 -1.96274 6.38612 -46.784 
-1.1537 6.997 -46.6313 -1.08208 6.99752 -46.6466 -0.21517 7.00301 -46.7904 
0.650171 7.00903 -46.8939 1.51663 7.01077 -46.9619 2.38698 7.00361 -46.993 
3.2642 6.98192 -46.9777 4.15054 6.93981 -46.9052 5.04056 6.87764 -46.7712 
5.91969 6.80236 -46.581 6.12085 6.78313 -46.5258 6.79355 6.14466 -46.5617 
-1.08161 7.04627 -46.6195 -0.210518 7.51786 -46.5097 0.601414 7.8426 -46.4427 
0.656425 7.84317 -46.4501 1.52111 7.84604 -46.5262 2.38946 7.83743 -46.5643 
3.26336 7.81166 -46.5564 4.1441 7.76403 -46.494 4.44353 7.74198 -46.4544 
5.03007 7.48601 -46.4795 5.91596 6.94429 -46.5169 0.656593 7.863 -46.439 
1.52292 8.06735 -46.4024 2.39119 8.14141 -46.3938 3.26351 8.07438 -46.4087 
4.14333 7.8609 -46.4401 -1.55004 -5.69551 -47.5232 -1.55264 -5.90567 -47.4392 
-1.98985 -5.69702 -47.4249 -0.596547 -5.69584 -47.6889 -0.600574 -6.27946 -47.461 
0.360627 -5.69951 -47.7938 0.35641 -6.55418 -47.4655 1.31473 -5.70738 -47.8279 
1.31047 -6.69362 -47.4485 2.26398 -5.7184 -47.7863 2.26029 -6.67662 -47.4095 
3.21467 -5.72838 -47.673 3.2119 -6.52115 -47.35 4.17377 -5.73506 -47.4962 
4.17191 -6.26341 -47.272 5.13865 -5.7447 -47.2607 5.13813 -5.93021 -47.1791 
5.54882 -5.75495 -47.1364 -3.39473 -4.69871 -47.4179 -3.40154 -4.86785 -47.3578 
-3.61949 -4.70248 -47.3421 -2.47416 -4.68947 -47.6727 -2.49036 -5.43594 -47.4057 
-1.54264 -4.68581 -47.8688 -0.598949 -4.68828 -48.009 3.213 -4.74478 -47.9834 
4.17454 -4.75768 -47.825 5.13982 -4.77319 -47.6098 6.09545 -5.50609 -47.0758 
6.09425 -4.80669 -47.338 7.02528 -4.87467 -47 7.02627 -4.99012 -46.9567 
7.17216 -4.89025 -46.935 -4.248 -3.73128 -47.3961 -4.27279 -4.13298 -47.2798 
-4.63675 -3.74445 -47.231 -3.3529 -3.70912 -47.7149 -2.45307 -3.69471 -47.9661 
6.09082 -3.85714 -47.6141 7.0154 -3.92842 -47.2892 7.91525 -4.31365 -46.807 
7.90981 -4.03417 -46.8943 8.16953 -4.07196 -46.7558 -5.07292 -2.79913 -47.2172 
-5.09802 -3.13558 -47.1472 -5.30933 -2.81255 -47.099 -4.18391 -2.75986 -47.6144 
-3.30384 -2.73035 -47.9461 7.00475 -2.99131 -47.5184 7.89024 -3.09651 -47.1335 
8.7582 -3.39445 -46.6285 8.75359 -3.2228 -46.6763 8.87128 -3.24196 -46.6045 
-5.00192 -1.84767 -47.3515 -5.76265 -1.8984 -46.9586 -4.1134 -1.80238 -47.7669 
7.87261 -2.16504 -47.3408 8.72902 -2.28597 -46.9003 9.38248 -2.38642 -46.5043 
-5.85242 -0.974151 -46.9372 -5.88696 -1.53976 -46.9037 -6.06732 -0.992005 -46.8187 
-4.93436 -0.908411 -47.4168 8.70516 -1.35394 -47.0835 9.56662 -1.99267 -46.4716 
9.5519 -1.47784 -46.5824 9.77374 -1.51197 -46.4347 -5.80419 -0.0519685 -46.9349 
-6.2493 -0.0902694 -46.692 -4.87486 0.0172084 -47.4207 8.67946 -0.43182 -47.2058 
9.52373 -0.550719 -46.7224 10.0523 -0.629663 -46.3739 -5.76814 0.856719 -46.8868 
-6.32558 0.80831 -46.5869 -4.82804 0.928032 -47.3711 9.49301 0.360791 -46.7838 
10.2326 0.253061 -46.3093 -5.7415 1.74982 -46.8 -6.303 1.70176 -46.5015 
-4.79234 1.82126 -47.2751 9.46041 1.25799 -46.763 10.3082 1.13712 -46.2434 
-5.72112 2.62582 -46.6748 -6.1833 2.58821 -46.4319 -4.76496 2.69445 -47.1368 
9.42804 2.14495 -46.663 10.2754 2.02622 -46.1747 -5.70395 3.48455 -46.5061 
-5.95878 3.46572 -46.374 -4.74312 3.54762 -46.9554 8.55339 3.13285 -46.8683 
9.39779 3.02472 -46.493 10.1353 2.9229 -46.0984 -5.69267 4.15169 -46.331 
-5.61426 4.33846 -46.318 -4.72618 4.39051 -46.7229 -3.78791 4.43449 -47.0919 
8.52667 4.00166 -46.6252 9.36819 3.89644 -46.2733 9.895 3.82496 -46.0124 
-4.71261 5.23874 -46.4293 -5.12768 5.21694 -46.2486 -3.77298 5.27684 -46.7791 
7.66683 4.95771 -46.6606 8.49892 4.86313 -46.3618 9.33635 4.76095 -46.0238 
9.55632 4.73174 -45.9212 -4.70473 5.83281 -46.1832 -4.49938 6.10571 -46.1489 
[...]
POINT_DATA 29146
SCALARS scalars float
LOOKUP_TABLE default
120 120 120 120 120 120 120 120 120 
120 120 120 120 120 120 120 120 120 
120 120 120 120 120 120 120 120 120 
120 120 120 120 120 120 120 120 120 
120 120 120 120 120 120 120 120 120 
120 120 120 120 120 120 120 120 120 
120 120 120 120 120 120 120 120 120 
120 120 120 120 120 120 120 120 120 
120 120 120 120 120 120 120 120 120 
120 120 120 120 120 120 120 120 120 
120 120 120 120 120 120 120 120 120 
120 120 120 120 120 120 120 120 120 
120 120 120 120 120 120 120 120 120 
120 120 120 120 120 120 120 120 120 
120 120 120 120 120 120 120 120 120 
120 120 120 120 120 120 120 120 120 
120 120 120 120 120 120 120 120 120 
120 120 120 120 120 120 120 120 120 
120 120 120 120 120 120 120 120 120 
120 120 120 120 120 120 120 120 120 
120 120 120 120 120 120 120 120 120 
120 120 120 120 120 120 120 120 120 
120 120 120 120 120 120 120 120 120 
120 120 120 120 120 120 120 120 120 
120 120 120 120 120 120 120 120 120 
120 120 120 120 120 120 120 120 120 
120 120 120 120 120 120 120 120 120 
120 120 120 120 120 120 120 120 120 
120 120 120 120 120 120 120 120 120 
120 120 120 120 120 120 120 120 120 
120 120 120 120 120 120 120 120 120 
120 120 120 120 120 120 120 120 120 
120 120 120 120 120 120 120 120 120 
120 120 120 120 120 120 120 120 120 
120 120 120 120 120 120 120 120 120 
120 120 120 120 120 120 120 120 120 
120 120 120 120 120 120 120 120 120 
120 120 120 120 120 120 120 120 120 
120 120 120 120 120 120 120 120 120 
120 120 120 120 120 120 120 120 120 
120 120 120 120 120 120 120 120 120 
120 120 120 120 120 120 120 120 120 
120 120 120 120 120 120 120 120 120 
120 120 120 120 120 120 120 120 120 
120 120 120 120 120 120 120 120 120 
120 120 120 120 120 120 120 120 120 
120 120 120 120 120 120 120 120 120 
120 120 120 120 120 120 120 120 120 
120 120 120 120 120 120 120 120 120 
120 120 120 120 120 120 120 120 120 
120 120 120 120 120 120 120 120 120 
120 120 120 120 120 120 120 120 120 
120 120 120 120 120 120 120 120 120 
120 120 120 120 120 120 120 120 120 
120 120 120 120 120 120 120 120 120 
120 120 120 120 120 120 120 120 120 
120 120 120 120 120 120 120 120 120 
120 120 120 120 120 120 120 120 120 
120 120 120 120 120 120 120 120 120 
120 120 120 120 120 120 120 120 120 
120 120 120 120 120 120 120 120 120 
120 120 120 120 120 120 120 120 120 
120 120 120 120 120 120 120 120 120 
120 120 120 120 120 120 120 120 120 
120 120 120 120 120 120 120 120 120 
120 120 120 120 120 120 120 120 120 
120 120 120 120 120 120 120 120 120 
120 120 120 120 120 120 120 120 120 
120 120 120 120 120 120 120 120 120 
120 120 120 120 120 120 120 120 120 
120 120 120 120 120 120 120 120 120 
120 120 120 120 120 120 120 120 120 
120 120 120 120 120 120 120 120 120 
120 120 120 120 120 120 120 120 120 
120 120 120 120 120 120 120 120 120 
120 120 120 120 120 120 120 120 120 
120 120 120 120 120 120 120 120 120 
120 120 120 120 120 120 120 120 120 
120 120 120 120 120 120 120 120 120 
120 120 120 120 120 120 120 120 120 
120 120 120 120 120 120 120 120 120 
120 120 120 120 120 120 120 120 120 
120 120 120 120 120 120 120 120 120 
120 120 120 120 120 120 120 120 120 
120 120 120 120 120 120 120 120 120 
120 120 120 120 120 120 120 120 120 
120 120 120 120 120 120 120 120 120 
120 120 120 120 120 120 120 120 120 
120 120 120 120 120 120 120 120 120 
120 120 120 120 120 120 120 120 120 
120 120 120 120 120 120 120 120 120 
120 120 120 120 120 120 120 120 120 
120 120 120 120 120 120 120 120 120 
120 120 120 120 120 120 120 120 120 
120 120 120 120 120 120 120 120 120 
120 120 120 120 120 120 120 120 120 
120 120 120 120 120 120 120 120 120 
120 120 120 120 120 120 120 120 120 
120 120 120 120 120 120 120 120 120 
120 120 120 120 120 120 120 120 120 
120 120 120 120 120 120 120 120 120 
120 120 120 120 120 120 120 120 120 
120 120 120 120 120 120 120 120 120 
120 120 120 120 120 120 120 120 120 
120 120 120 120 120 120 120 120 120 
120 120 120 120 120 120 120 120 120 
120 120 120 120 120 120 120 120 120 
120 120 120 120 120 120 120 120 120 
120 120 120 120 120 120 120 120 120 
120 120 120 120 120 120 120 120 120 
120 120 120 120 120 120 120 120 120 
120 120 120 120 120 120 120 120 120 
120 120 120 120 120 120 120 120 120 
120 120 120 120 120 120 120 120 120 
120 120 120 120 120 120 120 120 120 
120 120 120 120 120 120 120 120 120 
120 120 120 120 120 120 120 120 120 
120 120 120 120 120 120 120 120 120 
120 120 120 120 120 120 120 120 120 
120 120 120 120 120 120 120 120 120 
120 120 120 120 120 120 120 120 120 
120 120 120 120 120 120 120 120 120 
120 120 120 120 120 120 120 120 120 
120 120 120 120 120 120 120 120 120 
120 120 120 120 120 120 120 120 120 
120 120 120 120 120 120 120 120 120 
120 120 120 120 120 120 120 120 120 
120 120 120 120 120 120 120 120 120 
120 120 120 120 120 120 120 120 120 
120 120 120 120 120 120 120 120 120 
120 120 120 120 120 120 120 120 120 
120 120 120 120 120 120 120 120 120 
120 120 120 120 120 120 120 120 120 
120 120 120 120 120 120 120 120 120 
120 120 120 120 120 120 120 120 120 
120 120 120 120 120 120 120 120 120 
120 120 120 120 120 120 120 120 120 
120 120 120 120 120 120 120 120 120 
120 120 120 120 120 120 120 120 120 
120 120 120 120 120 120 120 120 120 
120 120 120 120 120 120 120 120 120 
120 120 120 120 120 120 120 120 120 
120 120 120 120 120 120 120 120 120 
120 120 120 120 120 120 120 120 120 
120 120 120 120 120 120 120 120 120 
120 120 120 120 120 120 120 120 120 
120 120 120 120 120 120 120 120 120 
120 120 120 120 120 120 120 120 120 
120 120 120 120 120 120 120 120 120 
120 120 120 120 120 120 120 120 120 
120 120 120 120 120 120 120 120 120 
120 120 120 120 120 120 120 120 120 
120 120 120 120 120 120 120 120 120 
120 120 120 120 120 120 120 120 120 
120 120 120 120 120 120 120 120 120 
120 120 120 120 120 120 120 120 120 
120 120 120 120 120 120 120 120 120 
120 120 120 120 120 120 120 120 120 
120 120 120 120 120 120 120 120 120 
120 120 120 120 120 120 120 120 120 
120 120 120 120 120 120 120 120 120 
120 120 120 120 120 120 120 120 120 
120 120 120 120 120 120 120 120 120 
120 120 120 120 120 120 120 120 120 
120 120 120 120 120 120 120 120 120 
120 120 120 120 120 120 120 120 120 
120 120 120 120 120 120 120 120 120 
120 120 120 120 120 120 120 120 120 
120 120 120 120 120 120 120 120 120 
120 120 120 120 120 120 120 120 120 
120 120 120 120 120 120 120 120 120 
120 120 120 120 120 120 120 120 120 
120 120 120 120 120 120 120 120 120 
120 120 120 120 120 120 120 120 120 
120 120 120 120 120 120 120 120 120 
120 120 120 120 120 120 120 120 120 
120 120 120 120 120 120 120 120 120 
120 120 120 120 120 120 120 120 120 
120 120 120 120 120 120 120 120 120 
120 120 120 120 120 120 120 120 120 
120 120 120 120 120 120 120 120 120 
120 120 120 120 120 120 120 120 120 
120 120 120 120 120 120 120 120 120 
120 120 120 120 120 120 120 120 120 
120 120 120 120 120 120 120 120 120 
120 120 120 120 120 120 120 120 120 
120 120 120 120 120 120 120 120 120 
120 120 120 120 120 120 120 120 120 
120 120 120 120 120 120 120 120 120 
120 120 120 120 120 120 120 120 120 
120 120 120 120 120 120 120 120 120 
120 120 120 120 120 120 120 120 120 
120 120 120 120 120 120 120 120 120 
120 120 120 120 120 120 120 120 120 
120 120 120 120 120 120 120 120 120 
120 120 120 120 120 120 120 120 120 
120 120 120 120 120 120 120 120 120 
120 120 120 120 120 120 120 120 120 
120 120 120 120 120 120 120 120 120 
120 120 120 120 120 120 120 120 120 
120 120 120 120 120 120 120 120 120 
120 120 120 120 120 120 120 120 120 
120 120 120 120 120 120 120 120 120 
120 120 120 120 120 120 120 120 120 
120 120 120 120 120 120 120 120 120 
120 120 120 120 120 120 120 120 120 
120 120 120 120 120 120 120 120 120 
120 120 120 120 120 120 120 120 120 
120 120 120 120 120 120 120 120 120 
120 120 120 120 120 120 120 120 120 
120 120 120 120 120 120 120 120 120 
120 120 120 120 120 120 120 120 120 
120 120 120 120 120 120 120 120 120 
120 120 120 120 120 120 120 120 120 
120 120 120 120 120 120 120 120 120 
120 120 120 120 120 120 120 120 120 
120 120 120 120 120 120 120 120 120 
120 120 120 120 120 120 120 120 120 
120 120 120 120 120 120 120 120 120 
120 120 120 120 120 120 120 120 120 
120 120 120 120 120 120 120 120 120 
120 120 120 120 120 120 120 120 120 
120 120 120 120 120 120 120 120 120 
120 120 120 120 120 120 120 120 120 
120 120 120 120 120 120 120 120 120 
120 120 120 120 120 120 120 120 120 
120 120 120 120 120 120 120 120 120 
120 120 120 120 120 120 120 120 120 
120 120 120 120 120 120 120 120 120 
120 120 120 120 120 120 120 120 120 
120 120 120 120 120 120 120 120 120 
120 120 120 120 120 120 120 120 120 
120 120 120 120 120 120 120 120 120 
120 120 120 120 120 120 120 120 120 
120 120 120 120 120 120 120 120 120 
120 120 120 120 120 120 120 120 120 
120 120 120 120 120 120 120 120 120 
120 120 120 120 120 120 120 120 120 
120 120 120 120 120 120 120 120 120 
120 120 120 120 120 120 120 120 120 
120 120 120 120 120 120 120 120 120 
120 120 120 120 120 120 120 120 120 
120 120 120 120 120 120 120 120 120 
120 120 120 120 120 120 120 120 120 
120 120 120 120 120 120 120 120 120 
120 120 120 120 120 120 120 120 120 
120 120 120 120 120 120 120 120 120 
120 120 120 120 120 120 120 120 120 
120 120 120 120 120 120 120 120 120 
120 120 120 120 120 120 120 120 120 
120 120 120 120 120 120 120 120 120 
120 120 120 120 120 120 120 120 120 
120 120 120 120 120 120 120 120 120 
120 120 120 120 120 120 120 120 120 
120 120 120 120 120 120 120 120 120 
120 120 120 120 120 120 120 120 120 
120 120 120 120 120 120 120 120 120 
120 120 120 120 120 120 120 120 120 
120 120 120 120 120 120 120 120 120 
120 120 120 120 120 120 120 120 120 
120 120 120 120 120 120 120 120 120 
120 120 120 120 120 120 120 120 120 
120 120 120 120 120 120 120 120 120 
120 120 120 120 120 120 120 120 120 
120 120 120 120 120 120 120 120 120 
120 120 120 120 120 120 120 120 120 
120 120 120 120 120 120 120 120 120 
120 120 120 120 120 120 120 120 120 
120 120 120 120 120 120 120 120 120 
120 120 120 120 120 120 120 120 120 
120 120 120 120 120 120 120 120 120 
120 120 120 120 120 120 120 120 120 
120 120 120 120 120 120 120 120 120 
120 120 120 120 120 120 120 120 120 
120 120 120 120 120 120 120 120 120 
120 120 120 120 120 120 120 120 120 
120 120 120 120 120 120 120 120 120 
120 120 120 120 120 120 120 120 120 
120 120 120 120 120 120 120 120 120 
120 120 120 120 120 120 120 120 120 
120 120 120 120 120 120 120 120 120 
120 120 120 120 120 120 120 120 120 
120 120 120 120 120 120 120 120 120 
120 120 120 120 120 120 120 120 120 
120 120 120 120 120 120 120 120 120 
120 120 120 120 120 120 120 120 120 
120 120 120 120 120 120 120 120 120 
120 120 120 120 120 120 120 120 120 
120 120 120 120 120 120 120 120 120 
120 120 120 120 120 120 120 120 120 
120 120 120 120 120 120 120 120 120 
120 120 120 120 120 120 120 120 120 
120 120 120 120 120 120 120 120 120 
120 120 120 120 120 120 120 120 120 
120 120 120 120 120 120 120 120 120 
120 120 120 120 120 120 120 120 120 
120 120 120 120 120 120 120 120 120 
120 120 120 120 120 120 120 120 120 
120 120 120 120 120 120 120 120 120 
120 120 120 120 120 120 120 120 120 
120 120 120 120 120 120 120 120 120 
120 120 120 120 120 120 120 120 120 
120 120 120 120 120 120 120 120 120 
120 120 120 120 120 120 120 120 120 
120 120 120 120 120 120 120 120 120 
120 120 120 120 120 120 120 120 120 
120 120 120 120 120 120 120 120 120 
120 120 120 120 120 120 120 120 120 
120 120 120 120 120 120 120 120 120 
120 120 120 120 120 120 120 120 120 
120 120 120 120 120 120 120 120 120 
120 120 120 120 120 120 120 120 120 
120 120 120 120 120 120 120 120 120 
120 120 120 120 120 120 120 120 120 
120 120 120 120 120 120 120 120 120 
120 120 120 120 120 120 120 120 120 
120 120 120 120 120 120 120 120 120 
120 120 120 120 120 120 120 120 120 
120 120 120 120 120 120 120 120 120 
120 120 120 120 120 120 120 120 120 
120 120 120 120 120 120 120 120 120 
120 120 120 120 120 120 120 120 120 
120 120 120 120 120 120 120 120 120 
120 120 120 120 120 120 120 120 120 
120 120 120 120 120 120 120 120 120 
120 120 120 120 120 120 120 120 120 
120 120 120 120 120 120 120 120 120 
120 120 120 120 120 120 120 120 120 
120 120 120 120 120 120 120 120 120 
120 120 120 120 120 120 120 120 120 
120 120 120 120 120 120 120 120 120 
120 120 120 120 120 120 120 120 120 
120 120 120 120 120 120 120 120 120 
120 120 120 120 120 120 120 120 120 
120 120 120 120 120 120 120 120 120 
120 120 120 120 120 120 120 120 120 
120 120 120 120 120 120 120 120 120 
120 120 120 120 120 120 120 120 120 
120 120 120 120 120 120 120 120 120 
120 120 120 120 120 120 120 120 120 
120 120 120 120 120 120 120 120 120 
120 120 120 120 120 120 120 120 120 
120 120 120 120 120 120 120 120 120 
120 120 120 120 120 120 120 120 120 
120 120 120 120 120 120 120 120 120 
120 120 120 120 120 120 120 120 120 
120 120 120 120 120 120 120 120 120 
120 120 120 120 120 120 120 120 120 
120 120 120 120 120 120 120 120 120 
120 120 120 120 120 120 120 120 120 
120 120 120 120 120 120 120 120 120 
120 120 120 120 120 120 120 120 120 
120 120 120 120 120 120 120 120 120 
120 120 120 120 120 120 120 120 120 
120 120 120 120 120 120 120 120 120 
120 120 120 120 120 120 120 120 120 
120 120 120 120 120 120 120 120 120 
120 120 120 120 120 120 120 120 120 
120 120 120 120 120 120 120 120 120 
120 120 120 120 120 120 120 120 120 
120 120 120 120 120 120 120 120 120 
120 120 120 120 120 120 120 120 120 
120 120 120 120 120 120 120 120 120 
120 120 120 120 120 120 120 120 120 
120 120 120 120 120 120 120 120 120 
120 120 120 120 120 120 120 120 120 
120 120 120 120 120 120 120 120 120 
120 120 120 120 120 120 120 120 120 
120 120 120 120 120 120 120 120 120 
120 120 120 120 120 120 120 120 120 
120 120 120 120 120 120 120 120 120 
120 120 120 120 120 120 120 120 120 
120 120 120 120 120 120 120 120 120 
120 120 120 120 120 120 120 120 120 
120 120 120 120 120 120 120 120 120 
120 120 120 120 120 120 120 120 120 
120 120 120 120 120 120 120 120 120 
120 120 120 120 120 120 120 120 120 
120 120 120 120 120 120 120 120 120 
120 120 120 120 120 120 120 120 120 
120 120 120 120 120 120 120 120 120 
120 120 120 120 120 120 120 120 120 
120 120 120 120 120 120 120 120 120 
120 120 120 120 120 120 120 120 120 
120 120 120 120 120 120 120 120 120 
120 120 120 120 120 120 120 120 120 
120 120 120 120 120 120 120 120 120 
120 120 120 120 120 120 120 120 120 
120 120 120 120 120 120 120 120 120 
120 120 120 120 120 120 120 120 120 
120 120 120 120 120 120 120 120 120 
120 120 120 120 120 120 120 120 120 
120 120 120 120 120 120 120 120 120 
120 120 120 120 120 120 120 120 120 
120 120 120 120 120 120 120 120 120 
120 120 120 120 120 120 120 120 120 
120 120 120 120 120 120 120 120 120 
120 120 120 120 120 120 120 120 120 
120 120 120 120 120 120 120 120 120 
120 120 120 120 120 120 120 120 120 
120 120 120 120 120 120 120 120 120 
120 120 120 120 120 120 120 120 120 
120 120 120 120 120 120 120 120 120 
120 120 120 120 120 120 120 120 120 
120 120 120 120 120 120 120 120 120 
120 120 120 120 120 120 120 120 120 
120 120 120 120 120 120 120 120 120 
120 120 120 120 120 120 120 120 120 
120 120 120 120 120 120 120 120 120 
120 120 120 120 120 120 120 120 120 
120 120 120 120 120 120 120 120 120 
120 120 120 120 120 120 120 120 120 
120 120 120 120 120 120 120 120 120 
120 120 120 120 120 120 120 120 120 
120 120 120 120 120 120 120 120 120 
120 120 120 120 120 120 120 120 120 
120 120 120 120 120 120 120 120 120 
120 120 120 120 120 120 120 120 120 
120 120 120 120 120 120 120 120 120 
120 120 120 120 120 120 120 120 120 
120 120 120 120 120 120 120 120 120 
120 120 120 120 120 120 120 120 120 
120 120 120 120 120 120 120 120 120 
120 120 120 120 120 120 120 120 120 
120 120 120 120 120 120 120 120 120 
120 120 120 120 120 120 120 120 120 
120 120 120 120 120 120 120 120 120 
120 120 120 120 120 120 120 120 120 
120 120 120 120 120 120 120 120 120 
120 120 120 120 120 120 120 120 120 
120 120 120 120 120 120 120 120 120 
120 120 120 120 120 120 120 120 120 
120 120 120 120 120 120 120 120 120 
120 120 120 120 120 120 120 120 120 
120 120 120 120 120 120 120 120 120 
120 120 120 120 120 120 120 120 120 
120 120 120 120 120 120 120 120 120 
120 120 120 120 120 120 120 120 120 
120 120 120 120 120 120 120 120 120 
120 120 120 120 120 120 120 120 120 
120 120 120 120 120 120 120 120 120 
120 120 120 120 120 120 120 120 120 
120 120 120 120 120 120 120 120 120 
120 120 120 120 120 120 120 120 120 
120 120 120 120 120 120 120 120 120 
120 120 120 120 120 120 120 120 120 
120 120 120 120 120 120 120 120 120 
120 120 120 120 120 120 120 120 120 
120 120 120 120 120 120 120 120 120 
120 120 120 120 120 120 120 120 120 
120 120 120 120 120 120 120 120 120 
120 120 120 120 120 120 120 120 120 
120 120 120 120 120 120 120 120 120 
120 120 120 120 120 120 120 120 120 
120 120 120 120 120 120 120 120 120 
120 120 120 120 120 120 120 120 120 
120 120 120 120 120 120 120 120 120 
120 120 120 120 120 120 120 120 120 
120 120 120 120 120 120 120 120 120 
120 120 120 120 120 120 120 120 120 
120 120 120 120 120 120 120 120 120 
120 120 120 120 120 120 120 120 120 
120 120 120 120 120 120 120 120 120 
120 120 120 120 120 120 120 120 120 
120 120 120 120 120 120 120 120 120 
120 120 120 120 120 120 120 120 120 
120 120 120 120 120 120 120 120 120 
120 120 120 120 120 120 120 120 120 
120 120 120 120 120 120 120 120 120 
120 120 120 120 120 120 120 120 120 
120 120 120 120 120 120 120 120 120 
120 120 120 120 120 120 120 120 120 
120 120 120 120 120 120 120 120 120 
120 120 120 120 120 120 120 120 120 
120 120 120 120 120 120 120 120 120 
120 120 120 120 120 120 120 120 120 
120 120 120 120 120 120 120 120 120 
120 120 120 120 120 120 120 120 120 
120 120 120 120 120 120 120 120 120 
120 120 120 120 120 120 120 120 120 
120 120 120 120 120 120 120 120 120 
120 120 120 120 120 120 120 120 120 
120 120 120 120 120 120 120 120 120 
120 120 120 120 120 120 120 120 120 
120 120 120 120 120 120 120 120 120 
120 120 120 120 120 120 120 120 120 
120 120 120 120 120 120 120 120 120 
120 120 120 120 120 120 120 120 120 
120 120 120 120 120 120 120 120 120 
120 120 120 120 120 120 120 120 120 
120 120 120 120 120 120 120 120 120 
120 120 120 120 120 120 120 120 120 
120 120 120 120 120 120 120 120 120 
120 120 120 120 120 120 120 120 120 
120 120 120 120 120 120 120 120 120 
120 120 120 120 120 120 120 120 120 
120 120 120 120 120 120 120 120 120 
120 120 120 120 120 120 120 120 120 
120 120 120 120 120 120 120 120 120 
120 120 120 120 120 120 120 120 120 
120 120 120 120 120 120 120 120 120 
120 120 120 120 120 120 120 120 120 
120 120 120 120 120 120 120 120 120 
120 120 120 120 120 120 120 120 120 
120 120 120 120 120 120 120 120 120 
120 120 120 120 120 120 120 120 120 
120 120 120 120 120 120 120 120 120 
120 120 120 120 120 120 120 120 120 
120 120 120 120 120 120 120 120 120 
120 120 120 120 120 120 120 120 120 
120 120 120 120 120 120 120 120 120 
120 120 120 120 120 120 120 120 120 
120 120 120 120 120 120 120 120 120 
120 120 120 120 120 120 120 120 120 
120 120 120 120 120 120 120 120 120 
120 120 120 120 120 120 120 120 120 
120 120 120 120 120 120 120 120 120 
120 120 120 120 120 120 120 120 120 
120 120 120 120 120 120 120 120 120 
120 120 120 120 120 120 120 120 120 
120 120 120 120 120 120 120 120 120 
120 120 120 120 120 120 120 120 120 
120 120 120 120 120 120 120 120 120 
120 120 120 120 120 120 120 120 120 
120 120 120 120 120 120 120 120 120 
120 120 120 120 120 120 120 120 120 
120 120 120 120 120 120 120 120 120 
120 120 120 120 120 120 120 120 120 
120 120 120 120 120 120 120 120 120 
120 120 120 120 120 120 120 120 120 
120 120 120 120 120 120 120 120 120 
120 120 120 120 120 120 120 120 120 
120 120 120 120 120 120 120 120 120 
120 120 120 120 120 120 120 120 120 
120 120 120 120 120 120 120 120 120 
120 120 120 120 120 120 120 120 120 
120 120 120 120 120 120 120 120 120 
120 120 120 120 120 120 120 120 120 